4
Properties=species:S:1:pos:R:3:force:R:3 lattice="3.38721 0.0 0.0 1.6936 2.93341 0.0 1.6936 0.977802 2.76564" sid=agm003781255_ab3_14_spg225_0_aimd-from-pbe-1000-npt_p8hz1n_0 energy=-18.8029 stress="-0.00040119 -0.00075388 -0.00408057 -0.00075388 -0.00391005 -0.000766811 -0.00408057 -0.000766811 -0.00245891" pbc="F F F"
C        3.40149000       1.96306000       1.37654000       0.34789500       0.12609100      -0.32154200
C        5.08601000       2.92833000       2.09021000      -0.31076200      -0.12552700       0.29523100
C        1.66020000       0.97309800       0.70386900      -0.32869200      -0.11685200       0.31517300
N        1.70553000       0.97979300       2.74664000       0.28878400       0.11612000      -0.28820600